# vtk DataFile Version 3.0
d-2__ created by libgimli-v1.2.3-38-gcdaaaf1e
ASCII
DATASET UNSTRUCTURED_GRID
POINTS 7314 double
197.51829889122	421.78450667151	0
198.1399	422.4395	0
197.4701	422.4905	0
189.24590157686	422.3020105964	0
189.5401	422.8871	0
188.89	422.93	0
544.7234	397.062	0
545.37442417483	396.48716039221	0
545.3966	397.198	0
196.99316307645	422.07540170642	0
196.82	422.54	0
20.786550504409	421.05007024546	0
20.879626191994	422.35920200258	0
19.964875156927	421.88410050712	0
194.83	422.72	0
194.1766	422.72	0
194.52546265106	422.2811328667	0
406.7620189097	408.48579236402	0
407.7721513327	408.44789568976	0
407.31206591945	408.8721751569	0
198.38717621624	421.446160151	0
191.5167	422.7736	0
190.86	422.8	0
191.14035226475	422.16115981349	0
39.1233	423.5035	0
38.928228520324	423.1367306446	0
39.411072845393	423.13910078444	0
38.453566873554	422.89508401248	0
37.67536278028	422.59216119741	0
38.692155041101	422.03603678882	0
195.13020587577	421.79714798967	0
345.23903184099	412.75602173376	0
345.29170998918	413.55113550967	0
344.51929558872	413.32436397736	0
200.78	422.26	0
200.1233	422.3029	0
200.54805675505	421.71545030032	0
202.1066	422.1327	0
202.36822755618	421.37095335075	0
202.76	422.07	0
23.349618327096	422.60106813393	0
23.401481357213	421.58293489004	0
24.297140540368	422.34847543156	0
255.19305638656	416.32364459671	0
255.39725000804	415.56957541636	0
255.76007648048	416.26138264432	0
198.79	422.39	0
199.14397060464	421.70579695328	0
199.4467	422.3471	0
542.9265899463	395.67520065364	0
543.04160223077	396.38104744356	0
542.41920408682	396.28650418624	0
199.89806037045	421.41843991216	0
476.02008876168	402.80077638975	0
475.38988673803	403.15466238713	0
475.02130723812	402.43495620285	0
407.6834	409.2473	0
201.4334	422.1973	0
201.73672102911	421.67258206361	0
50.166472175458	422.50982948818	0
50.107080015063	423.10737314793	0
49.476738597974	422.8600869814	0
331.42419746773	413.37956441963	0
330.49187602366	412.59811326728	0
331.61135352782	412.06008050522	0
187.56449475471	422.22816459245	0
188.2333	422.9993	0
187.5567	423.0707	0
188.5089180956	421.85632160624	0
373.81911986991	410.33980851722	0
373.59896732092	411.27469776273	0
373.1011297516	410.79180931804	0
245.16577217221	417.52062179686	0
245.0067	418.0974	0
244.64144763069	417.60704450285	0
209.77403125803	420.98111694756	0
210.0266	421.5727	0
209.3534	421.6373	0
184.52130012603	422.45202755931	0
185.16018044154	422.81637808225	0
184.91	423.31	0
186.9	423.14	0
187.04016948122	422.58732527149	0
477.48087185137	402.6171162072	0
477.1767	403.5571	0
476.77736700545	402.95709072024	0
39.21741470652	422.66953318959	0
181.13631860353	422.69068678303	0
181.5967	423.5005	0
180.94	423.55	0
553.86613025329	395.01176952568	0
554.95435578208	395.76103598576	0
554.0387481824	396.02023976661	0
193.5034	422.72	0
192.85	422.72	0
193.16383483702	422.10657145659	0
193.96494002382	421.88719948834	0
337.17029642792	413.79179527555	0
337.1066	414.4467	0
336.66591153555	414.02909220079	0
213.67099605958	420.1849329377	0
213.3134	421.2107	0
212.88917041469	420.5652348079	0
189.78207061991	422.30682486872	0
395.29351889554	409.6205820621	0
395.82281815233	409.31296396314	0
395.8134	410.0573	0
267.4666	415.686	0
267.06309187768	414.81172962246	0
267.69093033214	415.21460038508	0
190.40865541226	421.97153940232	0
190.2099	422.8429	0
400.01588598299	407.38620369993	0
400.6361652016	406.73327859579	0
400.82150085538	407.75145061899	0
196.72881054033	421.48427841931	0
50.794558249188	422.92189358436	0
51.0533	423.6535	0
50.3767	423.6365	0
77.918614713947	423.20293755328	0
76.971315873719	422.41069877669	0
78.279462429943	422.3057461078	0
216.29622776331	420.0056033282	0
216.62	420.98	0
215.9666	421.0097	0
215.2934	421.0403	0
215.39335972834	420.31721369912	0
86.014750835774	422.06340783878	0
86.762717636547	422.88243098055	0
85.849660734281	423.15543339719	0
111.91100290471	423.84910763326	0
111.0570443936	423.65424219341	0
111.77543381106	423.00455412758	0
248.76886064396	416.82854005809	0
248.31	417.66	0
247.74890270205	416.67869266171	0
212.07819507127	420.41800801589	0
212.66	421.28	0
212.0066	421.3559	0
474.86008238762	403.20542490568	0
217.00781212573	420.34869773038	0
210.68	421.51	0
210.82761692722	421.07693127497	0
211.3334	421.4341	0
97.224730510261	423.17444407929	0
98.281622588335	423.82106914068	0
97.464077991293	424.17195418642	0
137.23	423.89	0
136.79006584295	423.23750141391	0
137.54479246739	423.2269920924	0
214.86279906512	420.60397381189	0
214.64	421.07	0
218.6	420.74	0
219.12274184813	420.07551052684	0
219.2567	420.6806	0
218.27771355695	419.85854484404	0
217.9466	420.8192	0
493.91849304957	401.88508012536	0
494.46734610686	401.47846602861	0
494.39	402.33	0
131.31213728129	423.38316062751	0
132.20647982155	423.65949388943	0
131.54064437066	423.99363375618	0
270.71196866909	413.39100969554	0
271.89823737214	412.24783388501	0
272.28016674528	413.98905009076	0
217.2734	420.9008	0
248.9667	417.5973	0
217.55946294318	420.29779746473	0
116.6966	424.9539	0
116.43759666688	424.38182132067	0
117.25326259811	424.26007075829	0
464.65405016283	403.73062104844	0
464.60965833086	402.81813438508	0
465.50345761291	403.43396659541	0
219.63717533943	420.23787214624	0
220.59	420.56	0
220.17474276264	420.06419742591	0
220.84747506023	419.95291253898	0
587.1488092448	393.10058625284	0
587.01334800062	392.11789579265	0
587.98245483125	392.80287687282	0
54.027690948558	422.82229673272	0
53.308802270972	423.06517380889	0
53.239752938239	422.25114362263	0
206.72	421.87	0
206.0666	421.9063	0
206.33507057261	420.87764771165	0
205.3934	421.9437	0
205.45758340539	421.24527281673	0
253.25546850216	416.38582666358	0
252.5619799229	416.67354472109	0
252.33240767422	415.96997078456	0
35.1433	423.4401	0
34.711702942135	422.45929072381	0
35.467246705104	422.772469454	0
203.4134	422.0403	0
203.08206844779	421.48152142056	0
252.01874635991	416.68654102799	0
204.74	421.98	0
204.94513174508	421.53381791965	0
473.45229097734	402.61965332499	0
473.49041639239	403.26219608766	0
472.76952573517	403.05498695039	0
207.24088299929	421.13358364394	0
208.0466	421.7561	0
207.3734	421.8139	0
207.7820045498	421.34594682094	0
207.26480250658	420.16802591517	0
207.97930222708	420.75658656727	0
522.20438793662	398.72862597082	0
521.23320268189	399.14288209338	0
520.942302586	398.31019859054	0
579.45392444967	393.77014345782	0
579.7982490877	393.01927672106	0
580.06333732478	393.74583018988	0
404.9941122776	408.40553497716	0
405.26581992581	408.96207006537	0
404.77049524636	408.97195574077	0
343.5903873165	412.72084574495	0
343.71937394406	413.62993154598	0
208.27495180701	421.2863685661	0
208.87070450999	420.88614261195	0
208.7	421.7	0
204.45618565948	421.54456679477	0
204.0866	422.0097	0
314.32659683922	413.0795121478	0
313.87	413.67	0
313.4628921243	412.86587124066	0
203.83046176851	421.24116260139	0
211.30598660611	420.78872742029	0
472.10811977045	403.37285418739	0
471.80302584886	402.58977049373	0
36.4567	423.4566	0
36.189316407361	422.57124431056	0
36.882967684299	422.82091531795	0
103.12930594628	424.00972625127	0
103.44	424.78	0
102.7833	424.7932	0
22.787391909714	422.8545235997	0
23.2133	423.3167	0
18.5567	423.3501	0
17.9	423.36	0
18.086036209504	422.67667547356	0
23.208312905317	420.23638140273	0
24.49718793773	420.93737312164	0
292.22820633095	412.92596502497	0
292.06777345539	411.82550387352	0
293.02755512828	412.719433537	0
587.1333	393.7794	0
587.79	393.72	0
13.92	423.36	0
13.366687560034	422.64636511581	0
14.312004769371	422.4082240685	0
2.30493861038	422.97605652134	0
2.6467	423.5902	0
1.99	423.61	0
12.5934	423.36	0
12.822482603339	422.91073815151	0
13.2666	423.36	0
18.837036961295	422.11173155316	0
19.2333	423.3399	0
369.72014719388	410.67906958715	0
369.56907737551	411.65412171933	0
368.95694414613	411.21605171138	0
17.2433	423.36	0
17.435517652847	422.69372294177	0
10.6067	423.3801	0
10.218287599686	422.46809485969	0
10.964716809763	422.76337182477	0
350.9566	414.1134	0
350.5451447469	413.57090321686	0
351.21821608022	413.2893233784	0
19.89	423.33	0
19.619813162357	422.67526472035	0
21.2233	423.3166	0
20.5467	423.3234	0
196.43008829436	422.07796450523	0
196.1633	422.5994	0
183.09825358898	422.95146290785	0
183.61970712043	422.68671195919	0
183.5834	423.3703	0
179.99437714787	423.0554007817	0
180.52049223165	423.04875545636	0
180.2866	423.583	0
23.87	423.32	0
22.5367	423.3133	0
4.292802510278	423.01793514594	0
4.6367	423.5368	0
3.98	423.55	0
20.179312938951	422.71388931962	0
64.2967	424.0199	0
63.862725265787	423.12868718956	0
64.618267636524	423.40490916953	0
426.82	407.3	0
427.00270023253	406.65933970323	0
427.4734	407.1812	0
7.3033	423.4631	0
7.755841580294	422.66146686897	0
7.96	423.44	0
8.84728887717	423.0011136555	0
9.2933	423.4065	0
8.6167	423.4235	0
187.36276660431	420.98054062615	0
188.74428299831	420.05025842109	0
9.364297038129	422.74621365052	0
9.95	423.39	0
192.59371247049	422.10101959597	0
192.9039234861	421.10351950221	0
6.6267	423.4869	0
6.98176780689	422.8296184608	0
26.324953307979	422.61225341513	0
25.566601667016	422.79567320732	0
25.460318099729	421.93182860115	0
195.4867	422.6606	0
8.356819178653	422.99215313619	0
297.66182835032	413.12260291334	0
297.92091751957	412.32796467468	0
298.2240478447	413.12202123657	0
14.988315209828	422.83439010793	0
14.5767	423.36	0
15.2533	423.36	0
219.70558478882	419.76107691248	0
155.60399947406	423.07717702816	0
156.23256833313	422.16155466476	0
156.58866684469	423.29776457766	0
86.401333279538	420.73955792052	0
87.655040449819	420.87241919647	0
87.122358714924	421.85171552307	0
113.86464364875	423.90744396354	0
113.21683782405	423.66727882241	0
113.71096980826	422.83966169316	0
16.134940445362	422.59628746041	0
16.84498346575	422.81656654023	0
16.5667	423.36	0
15.91	423.36	0
427.61120542259	406.59252986044	0
428.1466	407.0588	0
15.513957551726	422.86640158359	0
266.20235716045	415.08083325522	0
265.35516964414	415.1008511592	0
265.64939908462	413.92209096351	0
499.0167	401.914	0
498.36	401.98	0
[...]
CELL_DATA 13481
SCALARS Coverage double 1
LOOKUP_TABLE default
0.67173881829173 0.65151394459368 1.3736000000001 0.65198179422435 18.165065985442 16.010699242994 3.209916747695 0.4514986707623 0.65723043903946 0 5.3211438146179 1.9409063870458 8.7361409126515 9.9988107509054 52.743747618796 0.7354595825674 0.53119412171752 12.800195168801 0 0.88390940253967 0.35732004935113 0 0.46938955593993 1.3427227478223 0.67629239238659 6.2151493513271 19.58662318457 0.68035690633664 17.863332154721 10.812763324955 0.13284979981071 1.7661482849713 1.3525847847732 75.055720033431 5.5068138460875 10.90859564624 1.9655915183306 8.0846409068071 29.042265028966 2.0671434263748 0.60756355010245 0 2.5220900381515 0 3.3973500894636 2.6653995239288 0.65151394459365 10.561500810795 0 90.848228305497 17.76270760398 0 20.307809623867 0 29.464147517072 1.3099655995557 23.486762358987 26.965366852521 15.287117156498 0.65779356184141 4.7229394534347 1.8797232562426 0.65779356184138 9.8167067633138 66.071808003873 33.032179967849 14.658541469001 1.2510723388887 31.746211657954 28.045843636174 46.763366005193 0.65818249748836 0 17.460970516344 0 3.1659457209741 30.310768756019 1.8527908897852 64.840278193346 9.2180468736381 26.973050913668 10.143107311927 0.67423808851177 10.802554563021 0 0 7.0178995472257 1.8126323314401 15.386743878271 0 1.5001586132711 23.537762737346 1.3513535140739 1.234795930893 2.9937246551429 2.1268573896624 7.8963206134358 2.2136212084284 13.67786481276 2.9215540736596 28.747790238103 0 22.716415078334 0 0 8.4262934622295 0 4.8087015301297 13.139369151315 0.65683264991929 0 47.264014842538 5.752955466327 63.093317989986 5.3490899310198 1.287131393072 11.951190895734 0.6732 1.3533537601086 32.971254295771 0.6567 0 0 2.6327927285039 0.67663416999143 3.077671055198 1.4536933705718 1.3209954162466 3.3276608423054 0.65670829140494 0.67660854265964 0.65683264991929 46.742760488211 0.53620939255642 6.4938801386201 0 4.9155136445186 0.65710615580742 0 13.582112747071 0 1.7406996562546 14.863514111217 0.67701846355916 0 6.7823896233362 0.65938095968871 10.700534648126 1.6716185306014 0.90685094619405 0 0 16.296098941707 8.0142115420289 52.613125202466 0 0.6567 2.7369472044598 0 8.8731811517122 0.65677461887622 10.560131999175 7.8290413600967 0 0 0.33005273352516 2.6322340348509 2.5507583611164 4.4862964001998 0 15.863649962429 0.65353331973206 1.1680103972613 3.8456776040623 0 51.08758540972 6.5374208642306 5.5605442144264 35.296282278168 31.645647525894 0 59.109471752792 0 34.725303779884 3.533633132954 0.67701846355913 13.971295948134 0.67327726829294 0.50052692452182 0.65353331973205 7.5718428370341 8.1348269951082 4.6700307671967 0 0 0.67333735972394 10.837484933322 6.7087285576709 15.150458858653 9.7071587202289 0.8183756825003 4.4386034635877 0.67667688005428 0.67663416999144 9.3373506005964 10.92539534001 3.921231362286 0.65673316499169 16.197242221557 0.65673316499169 18.86721349029 0 8.8725793387843 3.2191232302924 3.1643106568286 1.9321469826614 1.2780827939446 25.794638411317 2.0729988211012 62.314083751085 1.3389787655498 0.65683264991929 2.8468302693886 46.510219159891 23.389379344319 1.0138889167364 41.56255340976 2.6928343432154 9.1550169173411 18.482561105713 78.795901624944 0 1.4558825774974 0.48356917508786 15.520734264609 39.21789122829 0.65779356184138 46.344137577158 2.6429812459266 22.637127567857 0 43.291540504782 0.65013350167486 1.6669640798379 1.317638387419 0.67772670007903 2.0598999245133 9.0425408928471 49.756839475875 99.483742764051 29.701576934186 16.042319373889 12.179793504774 0.65640143966939 34.250264257463 0.67629239238656 3.8791622349586 37.120146029281 19.859535707546 3.1139764873721 33.577499356624 0 41.956303564068 13.012362392603 0 4.3327624872396 47.098237792127 24.166709016926 39.835828138601 5.6287224234718 0 1.4032499641694 9.4128488495066 0.94267039779125 6.5957457684851 3.7180075223187 2.924002439579 0.66029693320502 5.3574945921142 25.772411993609 38.564555497127 1.2432161814463 0.74002970640881 0.62126393942157 0.68000849994688 0 15.393103936393 29.846429311078 12.070711167034 0 7.5316929941036 12.485953421236 0.65710615580742 24.472774682595 62.395387184725 12.118240311288 22.978228724475 1.1049056489545 13.146433101652 9.5494567288811 0.6771465129497 1.2620544491227 6.9383159148216 0.66000824994844 94.758309746049 0 4.0088161822796 10.618431489642 20.314758106034 14.600109807373 0.65779356184138 25.769599546187 62.806412087142 10.650062271795 2.4043713911854 0.65779356184138 1.3545832126525 50.607706014484 7.7045627913799 0 0.67772670007903 0.66266760898655 0.66000824994844 0.63649626202313 36.524780846066 0.66266760898662 9.8876338025137 0 10.130181777455 6.1905830018618 31.289218155916 0.66241283954948 4.4692334310728 3.9599198707997 4.4294084350526 10.260091411406 0.65706472283939 15.051894490469 39.949670037326 31.567620819816 16.122327803301 11.235933391144 0 0 4.2945557060655 26.222807309356 11.239186583645 7.5176105800378 6.8981769853719 9.8350485012042 12.426658799594 2.3464263680059 0 8.1478440290664 8.3053159856008 0 10.045275881344 0.67812742165465 1.9552607700412 66.000914054458 2.7034970584947 0 4.2475288094008 10.042813422655 5.881289139544 0.74585253508469 1.7641669234435 5.0640411542789 11.741234827498 4.8764967028772 75.884487107877 0.92557544261906 0.55103812774931 3.0274821924138 0.38798190031176 16.321838135903 55.784810008431 5.6024907777769 27.853208720367 26.16158076399 0 2.8846518073308 41.197800348587 13.228361645236 15.629854113721 49.266759645911 0.67697577504662 2.1657076778491 7.4409629459181 2.2205653256659 0.65968642550836 3.6599740430634 10.371187693162 17.075148255057 26.2664081707 15.603167470746 31.131919332394 2.5622268684965 30.174249968857 2.6368808939871 68.023210300786 9.2226903597903 5.9147908247042 14.545044563711 6.1383184954326 0 0.67854494324253 5.5109288101534 4.7418510675249 30.558368112905 0 0 0.65527231743755 9.5234770498033 1.96110559645 0.67512905432962 8.2879413603283 2.7905398466199 7.0490736685998 14.378344458738 1.8792383130598 1.8549456061208 0 4.8871207022846 6.6092618625615 1.9102017774626 0 17.796857223147 2.3280066215632 0.60340894742261 9.0259340045419 0.75580065609194 0 0 80.692192599486 3.3719937030275 12.822499411887 0.4194186763262 0 2.4004381812967 0.69592220525614 4.9914306721878 0 5.2164303153204 0.65710615580742 0.92809780231814 1.5441566564893 0.30891877839358 0 55.307545056576 0 19.434990676484 66.268866382748 0 17.725950642944 0.65347499569608 1.3161995289469 0 3.7119242224602 65.658389704133 14.874544088208 0.66000824994844 0.68000849994688 5.5587824861005 10.106964560204 0.67327726829294 2.1268679681361 6.4383198982216 5.3031769380392 0 12.354114548571 55.694200377929 0 1.2329683168142 16.285870385138 0.29635109158008 0.17309176421875 65.552078810152 6.2436082799742 0 2.5472913091017 0 0.27638209625242 0.90680149775135 3.2362660781644 0 1.3484761770236 6.6501278422021 19.469260848916 0 19.841141374767 0.65690725372765 2.9953572506598 0 23.129830710711 12.384003187425 0.67667688005428 4.732457138711 0 0 0.30358590766955 0.67673666961382 40.735288275231 16.673456182228 0.32117644197673 1.3532170853193 0.66020621778353 0.81504741679184 4.3165860188011 0.67327726829294 0.65347499569608 2.8735895614472 0.65690725372765 42.668958084348 0 58.241704766161 3.8175985159017 1.2350618432138 17.695660975254 0.46879539123586 54.165440563185 6.1936994599665 0.65393311584596 0.71157264043257 0.66029693320505 3.5813183953175 25.361176688483 0 54.320608160109 13.878128205736 13.306804354643 5.2717902825996 112.64087380175 0 4.8389736415096 2.5089375649588 0.44375133155017 14.136563013327 0.68030593118096 3.7946932239484 0.67681353414364 16.141753529697 50.64805512683 0 12.329650714243 0 0.94694593661391 10.469203758639 0.67667688005428 0 3.8574680216682 7.0569570163826 0 23.691591521044 0.65723043903946 11.09042285279 0.27599866096411 13.774651801961 6.829281275845 14.743646231932 21.102283179684 2.3977401208791 2.2888614441613 3.3186428626755 2.6136333331209 1.3542930258995 0 41.685472308561 9.5967874851971 0.73466242491169 2.2968073742168 3.1558664753498 0.65779356184138 9.3581168199083 0.6613927804263 13.60364915272 0.65369993116111 0.65723043903946 0 1.2683309227463 4.2120686007834 1.0737433753806 0 55.108108185881 0 0 0 1.3474985417432 12.080636370878 11.612933896076 0 0.65677461887622 2.1306770379712 0 8.2692160537421 12.693027700281 0.67396370822175 10.563866005322 111.57506543194 1.9767688922183 2.4841298788835 0 0 0.65673316499169 0 11.95000137512 0 18.26836912518 0.65673316499169 0 19.772645191643 0.674726944771 11.654595222422 0 7.7092120297734 0.16566966216935 4.2595783751648 0 0.65723043903946 0.65723043903946 11.098455838035 0 0.65710615580742 1.9202467920932 5.0857879760584 13.368211452733 10.388254323285 12.717831129926 0.65343333248313 0.65683264991929 11.824544053163 0 0.67673666961381 35.689041768621 37.101205644709 0 0 0 76.152577824511 0.6567 22.462224540301 50.94856234546 0 2.9679947478018 9.1617376698191 0.67659999999999 0 1.6419499518888 16.696645279737 3.8646058642614 23.642961289669 12.10284182493 11.441187390596 0 6.9545680649603 0.90013551745984 15.542539377508 81.886913755119 18.812779099842 0.65673316499169 2.2628814420685 12.935907443767 12.575062963885 0.65353331973205 0.65343333248313 0 1.6514862028927 25.099953445878 0 5.679218117214 0.65347499569608 0.65353331973206 5.3458083356949 1.2820395609327 0.67782903449174 2.6804782068621 2.8486504600262 0.67003003664015 7.8603755635463 0 5.1761390836437 1.3210555779376 4.0503907378995 0 8.45665949386 0 0 39.822445778901 7.3405127532307 0 13.196344342735 2.4170926798545 3.2725366196031 0.66241283954948 3.9489158441245 7.2308051867633 1.8867816943058 4.1156196080962 28.497482451354 7.2133588770906 1.3610875651478 8.0285871606551 34.574011387892 8.7707059212205 3.9987821264763 3.0314992810693 14.73818514534 66.972653839543 7.4478432055387 2.7113310153783 0 54.055884152636 0.65737126496372 0.58501767993283 20.453592150566 3.6172857533245 0.42095926434668 0.67714651294972 32.411504850204 26.90061156903 0.6766 46.976145276635 1.6499524522265 2.011767760376 34.077224311857 8.1229118678218 2.1399178506665 0.6590918752344 22.16803924525 2.3749426504675 0 0 11.428446835407 1.2538793911584 10.500622771358 0.66936784003652 20.120899126167 5.3217762873603 1.5238027457586 1.2484595078607 2.7391363342902 25.662355124659 5.0332576265938 19.040563458504 10.24143664414 0 25.598094807732 0 0 0 0 2.335616846808 0.46104052135303 17.075512217542 0.67854494324253 67.391584859388 0.25205836580035 2.7066522228608 8.6721996598595 0.67897923385036 1.8910351839093 0 6.7716439444022 53.658826149426 118.61177879286 2.6436799033149 3.5963543513951 2.3654783580202 0 9.0057753192954 12.806462356531 0 0.49786628827455 8.1378146894984 0.68013598640271 0 0.67690746782704 1.3602719728054 49.489407375474 2.6378216359308 16.700889110189 109.9010258585 0 0.65380820582185 2.3831381449916 0.96475975609191 28.501935032613 15.640846304097 37.665311935742 0 11.086533300318 23.435363465973 3.419140433587 0 0.61104062839869 21.073049421013 0.66363648181817 7.6062155129587 30.695498211662 3.5715929442011 7.1530768664862 36.908762882574 21.199609121025 4.6995545170429 2.100527105416 1.8201136788136 5.7570741836134 2.4458795634248 12.159392271476 0.67660000000001 15.963146913512 0.96651860827075 0 9.2566281502358 1.961537412024 2.6270984755049 1.351353514074 1.618341129617 28.972672258232 1.8743338055156 17.708835609367 4.6091176451815 15.987899397803 34.5017126668 8.9496671497042 3.7618587001765 0.67323434255836 4.0394060553502 8.1872483465711 12.568653287566 0.68098261861311 11.155578111207 37.377066135368 0 21.826698198907 0.68248595589946 53.860558581957 13.91636986504 0 47.939856127209 7.9841469620371 5.8418421443944 0.54764565080539 1.3600169998938 2.8605811189481 0.24349233021897 61.909052267057 4.4515456787503 0 2.5718828780407 18.780197746138 0.32954449450817 1.6912708010706 1.2286816285841 0 45.576985687679 0.65690725372765 2.8427996437847 0 8.711265103661 31.671716447646 0.67660854265965 0 10.09152544999 1.7346842926255 0.67930533024025 5.5914128372248 46.247488223044 18.640560402641 4.880710792567 4.2081857062861 11.447126991 19.434437787571 39.056484427248 4.1184339028704 11.29569257385 12.363199312823 15.231806337209 15.080308119672 4.9691191955733 63.671725760211 1.144732395868 27.742863323195 16.260376025382 0.67434952361518 0.8624373868208 5.0740656423282 8.2308745563078 0.7407432434667 35.329117500887 1.0601419196679 18.108683803911 7.8603755635463 0.30158368153719 42.207231536031 0 1.6269725532479 12.971460350296 3.251993798314 0 26.614770867925 5.6761059395776 5.4075972352269 1.1444202886727 9.826844119414 9.4740887977526 1.3570387761593 60.884267429086 7.6845243423019 0 43.119465809116 12.033886982442 0 12.727086788023 2.0418409362525 0 0 10.518735376461 8.8206096341472 12.51839031741 20.307020987498 1.1955281429922 68.808568644573 38.216143232357 8.89633319995 43.739923018075 26.139003041182 0.67782903449174 15.617446267487 0.82783618348936 2.9678261075492 0 9.1797304676647 3.4642842439396 5.3083433643732 0.22806530802977 2.3397433510261 28.137184749091 17.451133725727 0.65809976447344 63.246500327503 0.799061534879 47.024798873224 0 5.2991052877189 3.8871751915454 0.65809976447344 8.5072444241494 27.333945687061 1.832980455397 6.1115792067191 0 6.2557302223057 0 6.1905830018618 9.010208351705 19.963096212453 14.88101486978 0.68122290037844 5.5202895185839 18.743603057998 2.7552676736962 9.5685920698804 20.783052754162 58.200621381808 21.484043462865 17.437691811752 10.930772394887 3.2103355971345 6.1468189716614 9.8184801145365 16.024001716017 5.245386184801 21.209819740869 3.4362490585869 0.66066791204056 14.675196864957 1.7368447730908 6.7342264116129 26.70315834841 20.430880312182 18.078926829173 4.9649888740046 0 44.377769510565 48.568758995336 4.0691057884429 2.9653870296269 17.452762094009 6.5809412891317 4.5949810699508 3.7809472486177 7.263241686565 4.0743861378127 3.9545512514064 0.56436641166398 0.65393311584595 3.9545512514064 10.939887265937 4.2234123158935 1.7399041608033 24.204653556624 0 6.0554676962408 5.3188637766397 1.3210555779376 4.5112943054127 9.7100049334071 3.4505825161591 0 0.67714651294975 1.9857466351348 0 7.781415157722 2.9574281142216 8.4464514099039 1.3533537601086 11.574877027932 1.5983050125412 0 1.8955784454467 0 23.842801513245 18.752519997323 6.6009459820672 0 31.534620740375 26.897166863187 58.77512548927 1.6648713228659 0 1.1151407617723 3.5812105878054 23.691591521044 3.365617021209 22.229708959796 8.1922149348179 0.6606679120405 1.4807392931821 3.9562317792814 13.112022193284 0.68143498589369 0.25196015693986 1.3560843631574 9.4237486612532 0.44742788556198 0 16.019904797343 12.43300063343 76.751163858326 12.738402256681 4.8211768366566 21.97040284703 2.7823419085249 19.355307798128 0.68068815179935 18.562404423844 55.252463434133 27.769733410541 56.364780370504 0.66118693272026 10.927847713397 0.80676674118557 11.011180689477 0.67878341170068 2.5617235074052 1.8524372620319 0.67374927087159 0 0.65881919370948 3.0347553264514 0 18.523123725386 3.4277738583273 0 10.806310452694 0.65789288641845 19.515032014101 11.853375392206 3.2696655792298 0 3.2550573503061 0 0.75211775394557 24.908289911943 0.62824868532756 4.1961101665412 0 21.358162834389 5.7292890272788 19.139837281613 24.539760973135 2.4701057850756 0 9.4121477173673 98.990671580735 7.6107960661566 1.0236021725327 27.768019658395 0 42.343500192572 1.3626154292749 42.374123024319 40.575141786407 23.89478511477 74.25251163592 0 26.014102244328 0 26.913950587476 56.255565709473 14.322154599398 0 21.36019334374 14.198491629833 0.8529495990929 0.3488858650963 2.4525984382901 59.561567540325 2.2857629044729 0 0 0 0 0.67567675703704 0.87911316521989 0.6567 65.61270766237 37.200102113071 0 72.946483719592 1.3933900877106 0.67663416999144 0.65580391124168 9.6667534682354 9.800180337583 0.65938095968871 0 11.984529487545 0 1.1739524480361 1.0626063424105 7.0943693440594 9.6035019665911 11.953606782272 0.67936220089141 0.6558039112418 18.829111831699 11.271207351122 2.8707458486946 7.8397421786436 15.740274015654 0.64922834965836 4.005899503047 1.9688144316214 6.9487628000059 70.145980485175 0 0.67333735972394 3.3121573453064 8.4934461944341 9.1715534075162 1.3581287126042 0.57565629278981 2.5985684120751 3.3261606130991 8.7338723963051 0.67597609425181 15.114283025712 2.0389450967525 5.3113807496304 13.527859489837 37.71943998962 0.57642991858425 1.801867644474 2.8923139205307 0.61986407475739 0 42.068417763195 18.586907995981 29.527333516091 0.64922834965826 6.810726416463 12.979000143168 0.6689019360115 0 16.708363743111 0 33.312350617371 0.66834868145309 0 1.918599108657 13.169855761748 0 13.132482172846 15.602164616226 0 3.2959093494302 0 0.85137379674677 3.8820461403947 15.722161747961 3.0457307649166 0.65881919370947 0 0.64869136729263 10.810711296613 0 1.3163649949767 0.65789288641845 10.678165650855 0.65640143966936 4.9861809923422 1.5056864209927 8.2130500671944 0.65916429635046 12.302850448242 26.828698443865 11.232969230247 0.67878341170068 0 0.65881919370947 0 34.883358287488 8.4308983537314 0.65968642550836 0.67967692325105 2.9905682931963 14.679178856921 51.450686058321 8.1084930891258 38.925583570374 14.998830462292 6.0831832516623 3.0533034055613 14.617138307559 29.830869307071 14.984920068301 0.66000824994843 0.63598861586823 8.5914228873719 2.7388325628441 1.2228390143013 10.811335116034 77.276694777818 2.529070584939 1.044724066212 10.936461362705 20.505865460507 7.5012594110781 0 1.5802513496047 2.6822099195485 5.4107118080024 1.3136652998386 89.773676831885 26.679752133464 10.193471097439 12.993229770968 0.6552723174376 19.516141994387 1.4230755905168 3.368746354358 6.993181830939 6.2854760476001 0.67512905432957 0 7.2245394649887 0.49646998828022 5.6038988187119 13.871344248132 1.3296873132586 9.6649545364049 4.4285789461368 8.8730779498272 0 33.897335305859 14.854241601076 0.77574294270894 21.295455824407 10.960053675191 1.9110001026836 1.8134548220287 20.903749622501 10.639144118815 8.0460417393036 0 2.6400329997938 2.6400329997937 0 14.143532280524 1.0332838609919 12.546025575916 5.6467299621413 6.9700632065817 1.303358740989 0.65677461887622 2.7200339997875 3.4210178038659 2.3203918944833 18.076893335321 8.9980837112536 18.31204154973 0 0.67681353414364 0.66000824994844 3.0034832413459 4.244516505127 1.3534733392274 0 0 9.9769103668032 9.1920780214476 0 5.5597623089754 0.14760725852842 0 20.328481616872 8.0874556148662 0 17.475928938969 2.8405705844482 12.334906158335 1.3614442331583 16.031473485663 0.65881919370947 0.96645571059218 12.827588131047 4.4245920523815 3.6889806174848 0.6552723174376 1.2808995283476 1.2698969077233 0.29117097286981 1.3509639709141 1.3293421646585 6.020934452835 0.985257059081 2.7151336468027 2.6705145463303 34.077482430899 1.3186732697702 4.4543156425737 1.1521639209281 0.67374927087159 0.73532025675897 62.789093030506 1.1000084184312 0 0 55.029548354865 14.003208083872 0.67772670007903 1.9637227201514 3.1348045895863 28.610290045475 16.313652720113 59.655854134911 16.634225279312 0.66020621778353 0.65710615580742 1.9728495653239 2.929476173653 5.7734373780475 1.0510041467024 27.695737471962 86.197642471589 6.9776053895486 2.3886690052664 1.2100448535432 0 27.407216406226 1.4888155514761 0 19.092776131168 0 0 0.46155778282381 38.268048661206 16.836114776586 8.4226970429638 2.9629977280138 21.155288231768 7.5988443743223 9.2299663609509 0.68007649569737 3.0013309410156 3.0755264304759 0.31371097599224 7.5977289845511 1.5376420709646 11.225957960449 1.3004065889186 1.0727079767238 9.4000255273515 1.5180196026115 0.66228130730076 81.202235106645 12.571676137932 0 1.9059192437973 0.67629239238661 3.0547747740812 5.3483968635246 0.68713610006957 3.9016269133109 0.65527231743757 14.296666877611 10.131152255883 1.306092878747 0.67662562765536 33.499409955557 1.358273699847 0 2.6280056706278 1.1602120516846 11.05541854118 23.144635644652