# vtk DataFile Version 3.0
d-2__ created by libgimli-v1.2.3-38-gcdaaaf1e
ASCII
DATASET UNSTRUCTURED_GRID
POINTS 4632 double
111.94178417943	293.73950237966	0
111.25883198502	293.31442374607	0
112.33639417721	292.87483826736	0
4.237406626915	285.95034011095	0
2.90933325528	287.74775089113	0
2.170839162818	286.08220234271	0
151.60026681637	286.18937072374	0
151.51	286.7	0
151.01863806671	286.27611771027	0
4.847711498715	287.99002111772	0
6.586193411196	289.00019709892	0
4.913505525314	289.69285298972	0
3.508798724602	289.35661127282	0
2.734760168856	290.46081210604	0
1.797694354131	289.49463015101	0
157.27	285.18	0
156.6364	285.3549	0
156.97574373114	284.61938540478	0
296.06773139897	293.67361666963	0
296.2131	294.1387	0
295.5569	293.9313	0
132.2	292.04	0
131.5565	292.1951	0
131.66687586834	291.1304395249	0
1.44	292.5149	0
0.76	292.3551	0
1.195674330238	291.68512298611	0
128.54902599367	292.41188422241	0
128.3	292.93	0
127.91208254227	292.1065914	0
316.11366033397	298.71817820189	0
315.19920744868	298.41705345357	0
316.10850377305	297.47165300685	0
130.86283844146	291.63316987626	0
289.00577986651	291.02488978658	0
288.22865643456	291.23563764138	0
288.13802192051	290.37907124752	0
130.8935	292.3549	0
130.25	292.51	0
130.38107005712	292.00540476445	0
135.4565	291.1448	0
134.7935	291.3352	0
134.83774088849	290.65828239198	0
28.444782339422	294.67052200042	0
27.712828569546	294.94248781938	0
27.378972123565	294.05822584322	0
34.176359375587	295.03508490311	0
35.005967085853	295.47550453651	0
34.155621455999	295.83730865501	0
2.676478394404	291.67714015312	0
2.7633	292.8317	0
2.1	292.67	0
53.381889397025	296.5163587356	0
53.08373725449	297.33716233953	0
52.370430397995	297.0917011934	0
3.604568117086	292.09311202969	0
1.850806043055	291.90671347677	0
42.84084717503	295.0598196047	0
42.699027861026	296.20633052959	0
41.83329065989	295.87431939467	0
384.54274111577	312.1767058489	0
384.1701	313.1925	0
383.90569876627	312.6596091202	0
126.9935	293.1444	0
127.02038544354	292.46268510351	0
127.6565	293.0356	0
370.26904951674	310.50280003621	0
369.49896614807	310.76649932586	0
369.34830152894	309.99095674901	0
126.35	293.25	0
126.51512229266	292.78635279948	0
357.0543048311	308.50569249348	0
356.42859388109	308.6652205444	0
356.33515016949	308.02815393377	0
388.55733431156	312.87108219903	0
388.7599	313.7307	0
388.0901	313.6593	0
4.303884507003	292.59933825911	0
4.77	293.259	0
4.11	293.16	0
124.59734436668	292.5997354535	0
125.0502	293.4309	0
124.41	293.52	0
372.90498025299	311.15860533653	0
373.0799	311.6572	0
372.4101	311.6028	0
59.88057806986	297.06818222134	0
61.092735882087	297.41347057741	0
60.246919690231	297.83595935364	0
19.950373067279	294.21417983965	0
19.4667	294.7939	0
19.192000053653	293.76987398862	0
141.2831	289.6991	0
141.62898849449	289.11039585032	0
141.92	289.61	0
162.93402797728	282.57724569137	0
163.7181801439	282.88644090912	0
163.18056358428	283.24974523843	0
137.54028987569	290.01408002229	0
137.4065	290.625	0
137.00296291636	290.13910006008	0
23.238410494678	293.64319374865	0
23.964727881663	294.19621816696	0
23.183691954945	294.4171443655	0
140.93660745036	288.86189547466	0
140.6269	289.7909	0
89.48	294.23	0
89.755965548898	293.51062460642	0
90.1169	294.1178	0
142.22297719409	288.98443768605	0
142.82047674726	288.95632558797	0
142.5503	289.4615	0
79.137509381743	297.89920049299	0
80.387578536018	297.89316902992	0
79.812005660737	298.47108698746	0
210.02515297575	275.07621639187	0
209.26440858911	275.27287816596	0
208.90256708599	274.2456797597	0
64.239360808002	298.03829219286	0
65.05291238195	297.91967805499	0
64.5734	298.6794	0
143.1997	289.3085	0
143.49596414728	288.65792501772	0
139.99	289.88	0
140.2025989565	289.20053375763	0
28.7767	295.6161	0
28.12	295.56	0
52.03	297.79	0
51.699297558607	297.35122706868	0
132.58547180083	291.18887743498	0
132.8435	291.8684	0
83.66	296.9	0
83.0198	297.5105	0
82.46644855394	296.3840370527	0
133.1809719296	291.29050212619	0
131.44541209747	290.01349063657	0
130.65351008762	290.67743736046	0
60.6134	298.4596	0
133.5065	291.6916	0
133.74307913528	291.08994064785	0
46.139078591669	296.05564872412	0
46.95660822853	296.56578176874	0
46.350951833782	296.78859578293	0
136.7435	290.795	0
135.49783395241	290.45590304047	0
136.1	290.96	0
136.21124155066	289.92736547075	0
37.761697126754	296.09984215691	0
37.230831130256	296.03765521946	0
37.589989078879	295.2968225311	0
28.544249919151	293.30997352926	0
36.7667	296.5326	0
36.11	296.46	0
36.590415457591	295.65611748071	0
134.15	291.52	0
55.22824645484	297.41938099129	0
54.6634	298.0061	0
54.362255601844	297.1160858107	0
67.2333	298.8134	0
66.826839742953	298.16130796467	0
67.565192665854	297.91177110159	0
103.76206251809	293.2288726043	0
104.3531	293.7698	0
103.6969	293.7902	0
39.834914326833	295.90955989537	0
39.122783851533	296.1420642743	0
39.146951007138	295.49171875804	0
79.336197269186	298.6132184246	0
78.82625624348	298.61352954477	0
5.964402373423	292.84248520276	0
5.45	293.361	0
5.303298733393	292.43481325587	0
87.944410888556	293.0052501547	0
88.948406827294	293.40799757759	0
88.271837291143	293.88232695401	0
3.4467	292.9983	0
98.000205388975	292.27611312943	0
97.657087180546	293.18973563215	0
96.969371498212	292.85593175432	0
53.3566	297.8972	0
53.63726979345	297.35996214879	0
54.01	297.95	0
6.11	293.46	0
6.524859426734	292.91988089169	0
225.4068	278.8787	0
225.92470087789	278.44566064665	0
226.0732	279.0113	0
104.51933699548	292.92064363042	0
103.56376880221	292.46087491146	0
215.6435	277.1481	0
216.06955958928	276.55617811536	0
216.3065	277.3419	0
93.751941324777	293.17540702722	0
93.35	293.71	0
93.017462756453	292.93036138668	0
92.0502	293.8306	0
91.41	293.89	0
91.635944409604	293.46394826872	0
93.9902	293.6968	0
63.58613425661	297.95358359125	0
64.058269346646	297.03076900534	0
185.6329443762	275.35788871318	0
185.9567	275.7571	0
185.3	275.8	0
10.408169722179	293.01053059971	0
10.12	293.83	0
9.6145162942	293.21841697441	0
88.8398	294.4214	0
9.098442037378	293.36352014158	0
9.4567	293.7739	0
8.7733	293.7161	0
7.341760533254	292.73033329842	0
7.45	293.594	0
6.77	293.526	0
203.71147585726	275.17609238727	0
203.17	275.58	0
203.19205216431	274.91068463425	0
207.8266	275.8341	0
208.47316191431	275.17541965692	0
209.14	275.91	0
92.7098	293.7694	0
92.161378914232	293.19259358944	0
207.23680287613	274.62554578412	0
205.31301716588	274.82838754202	0
206.09026824088	273.57412926166	0
249.43435953896	282.67192987884	0
248.8535	283.5886	0
248.49635281878	282.73019845505	0
91.417569331468	292.91560493138	0
91.15309334815	293.49629049978	0
103.28694464651	293.43413355393	0
90.537804261984	293.21341463872	0
215.43772682486	276.51599829031	0
251.4732	284.0978	0
251.30123589358	283.13770587935	0
252.13415121294	283.53603051654	0
95.29	293.67	0
94.6498	293.6832	0
94.715553833624	293.07045527302	0
162.57755776621	283.2612284517	0
163.03	283.81	0
162.3964	283.9354	0
122.46	293.79	0
121.8165	294.0408	0
121.84058632472	293.20770558403	0
105.6302	293.7632	0
105.28185930296	293.15716684093	0
105.9760318665	292.98844146967	0
268.3835	287.6121	0
268.12534156253	287.02858781834	0
269.02854422016	286.78599469821	0
107.31793263165	293.06592810677	0
107.5702	293.856	0
106.93	293.79	0
103.06	293.81	0
346.77123004886	306.36056481729	0
346.0492464374	306.47573672355	0
345.97686245424	305.53902668444	0
123.7665	293.6091	0
123.93331498126	292.96448553248	0
122.71408838716	292.96769961	0
123.1035	293.7009	0
316.4171	299.5054	0
315.8	299.38	0
304.75086090529	295.62095806097	0
304.9247525588	294.67028970481	0
305.62139699567	295.61491914926	0
329.82114072134	302.91733292782	0
329.0312236109	303.27629695786	0
328.92411475727	302.44462441513	0
104.99	293.75	0
161.58958041796	281.43687644556	0
161.95681022234	282.5592266548	0
160.85096363384	282.23180566576	0
233.8865	280.4916	0
233.73290807397	279.52663380936	0
234.35778181157	279.98878606382	0
247.84878171494	281.22147145633	0
248.6992347859	281.69482109184	0
247.88517746024	282.12888197809	0
95.486533350617	292.79480237426	0
96.239805199934	293.08917799917	0
95.9302	293.6997	0
97.8702	293.826	0
98.214015125676	293.2329844297	0
98.5298	293.894	0
101.03001843419	293.58845593488	0
101.7602	293.9507	0
101.12	294.02	0
99.010896291653	292.98185595394	0
99.702304695497	293.38108525174	0
99.17	293.96	0
280.45148828112	289.25871112697	0
279.44297680675	289.02082671477	0
280.26615255818	287.85550587716	0
264.92322042767	285.75973445816	0
264.40467043628	286.30529755959	0
263.88439832075	285.75981139998	0
97.23	293.76	0
279.85870491233	289.51791620837	0
239.7465	281.7513	0
240.16406717804	281.19174179498	0
240.39	281.88	0
106.2898	293.7768	0
106.63677164722	293.22478207631	0
264.91188389101	286.44541734145	0
265.61358038998	286.33970906407	0
240.28753455543	280.49164792645	0
239.87519423376	279.49073284789	0
241.00373164669	279.94390024624	0
129.86366956009	292.08589035215	0
130.04675156341	291.44972604575	0
280.0902	289.9751	0
120.51	294.55	0
120.72386686775	293.8001036977	0
121.1535	294.2992	0
261.25238845421	285.54161418846	0
261.2365	286.2213	0
260.5735	286.0887	0
252.12	284.21	0
286.29037199042	289.56337460546	0
287.54359761194	289.11641927021	0
287.08115333011	290.54804848513	0
347.12114358321	305.24669313677	0
115.3302	294.6759	0
114.988753305	294.20840044335	0
115.5471381164	294.03490389676	0
94.255970397672	293.29390765353	0
181.47	276.2	0
180.8364	276.3287	0
180.83749780213	275.38320415456	0
6.451244498522	292.05383165853	0
179.79433306229	275.17446236538	0
180.25398754952	275.86013361139	0
179.61981669348	275.96081508675	0
0.482207738078	291.61543032452	0
0.1	292.2	0
186.60619500742	275.06025385022	0
187.41787414727	274.7401543324	0
187.29	275.67	0
21.100119122117	294.47986887835	0
21.043791664321	293.95591443254	0
21.623354434298	294.29934432087	0
182.7497	276.0526	0
182.90928314352	275.49988423254	0
183.38	275.98	0
151.26302096415	285.62357030702	0
152.06284839684	285.81525666917	0
182.1003	276.1274	0
181.78325194791	275.4320328221	0
182.40206471177	275.57180265926	0
[...]
CELL_DATA 8499
SCALARS Coverage double 1
LOOKUP_TABLE default
68.383548213484 0.55870745884808 8.4177216779687 13.681714371475 0.69457924201958 2.6291868552843 4.1291736703608 27.068906728377 1.397048374252 1.1760368269376 73.791085827505 7.0149031151779 0 16.686218689939 7.8615988167521 5.0321943629817 15.355689925508 16.942647057193 3.2579630809127 0 0 9.7713591750428 0 1.6200541482375 0 6.3321779707315 22.357158649226 18.425135360254 5.3887586696753 10.084983460548 9.9277299079993 3.0658206658816 0.67200550592983 26.055965929382 0.65920576517994 17.842427749758 8.5978887293755 6.6618747723905 4.0584033314314 16.396223396812 0.64670739132934 5.5216617894581 4.2178792636501 33.793289651396 2.5966170964466 23.233501832817 13.76005071458 12.195334337849 10.289634955624 0.6590918752344 4.3549615491551 2.6701531196741 31.124607644928 6.9839916283706 0.57276972854338 24.732014167969 29.051740559359 0 8.381501990578 12.973170938117 25.986643069068 56.775859099366 0.93536791390872 20.619447495314 7.5056774897486 10.178224960947 1.9979612834087 10.967607527786 5.9182554815011 7.7047567049603 1.3130340437323 0 5.1880271472142 12.077092400274 24.914241326867 10.179599736523 0.68272525952978 8.1201076282611 23.481924044482 20.337420801068 9.5125000457291 6.9934264433848 3.3458712170157 13.072821415349 13.665391452993 3.8580488660982 4.990270255476 16.702776798335 0 2.919189575058 56.870734245025 1.0287598845212 15.969588041693 0.67552754467391 10.524730100102 1.117605693607 1.7330136169437 1.8117393098375 0 1.9063538323678 2.3740876109502 0 1.0740326679965 1.1531472701271 50.740992344603 3.5523959703277 7.9473302594207 0 4.065489364506 0 20.312413668579 3.4585012942479 7.4769702192647 20.71379288567 14.589899117809 1.9388711114136 30.830570922869 98.824793862645 18.003829498256 2.9326274305453 1.0334155246865 10.855293070038 3.454402114888 11.974298353174 0.66309589050151 29.530546512683 14.208783809353 27.319730060327 16.414081430521 2.4247529960311 7.0532553628873 18.809562857552 0 1.3194803825749 1.0652305286092 15.311308561459 6.9630922778378 5.9978286419248 30.095707600273 15.155023647029 8.1135598500289 26.84577079055 3.8410780657961 67.197584658484 4.9706859141339 0 8.1041353834616 6.4577600952871 1.2910302098871 6.4438823845319 1.3559587161857 3.5140603354476 0 17.367982117407 1.7841891942823 5.5252181284275 1.3705044651477 16.532037975798 15.92222862107 0.63637828372754 47.750030309317 0.7976275156695 6.2829621785277 8.4694745908469 4.5903682961938 77.067926617153 4.9687844375318 0.61856658737276 0 0.64636607127781 5.0289809555622 14.306984789006 3.2616084988852 2.0404079592082 9.3547870098685 16.782711627084 0 1.7711920842082 0.65672766697208 0.29148817412809 0 4.220502793924 0.92862903996588 0.65673316499169 7.0544635848628 1.991330659245 27.967989942637 3.2935277154596 3.0758080198906 19.411799506809 55.905871304948 8.8292803535365 1.3189600903742 1.3174110861838 0.92862829009987 9.2327206326197 46.413560711669 92.567811179571 3.6506771382334 0.65566247414353 0.6363782837275 18.632912050637 0 0 9.9326590111161 0.67333735972392 3.3873057118974 9.3330657093378 12.883912611852 13.326377938309 3.9435969704654 11.573383917692 5.110863233489 2.9423785699967 8.2970678664699 4.7226024787357 0 16.049197749631 25.049000828949 10.495253857519 12.069983029386 53.132836842127 4.9074747351691 0.65309993109783 0 10.127241352435 0.44090971600792 14.091960637497 10.153547811795 0 0 17.808836623537 11.27318649135 0.64670739132934 15.717120725725 17.571136472955 2.058505564724 12.103530328166 2.0742145790636 24.163842125461 0 2.0132082679147 12.031002495512 0 42.213012552623 23.050715313972 68.949596871111 1.3294700297487 37.428494472467 3.8528310563444 0.6618783271871 1.6925278685731 0 0.66381696272392 24.434816324158 40.037062342644 8.4093083296514 7.6047659275048 1.0757924310441 45.342716754744 10.612381222087 6.5952448787599 0 7.6196158970966 0 98.935257455063 8.5113425733509 15.074650650939 17.342653397165 0 0 40.108103219732 9.8244039252697 9.1255457146099 0 27.771392267236 11.468717436473 2.7088591842324 2.1877383100967 4.3961007476802 9.1424959118768 48.506499628788 3.4935697728439 1.3559587161857 16.129109755923 0 3.5105937982104 0 0.65825694831121 2.7361189699698 0 4.7912002390766 13.784218617209 11.389414511106 0 1.9809282369637 3.6046758169042 4.7279288734429 4.3421196685155 40.858174256816 2.7276392723379 0 13.53007568274 1.3697570003471 11.191048511889 2.4778759004916 2.6284484039469 6.7015963351959 0.68410162987673 1.0595996180066 5.2629685117992 0.39966633445565 15.772769800355 0.66398099370389 4.6329755287504 2.7490590955882 9.7861687854372 2.6275033882325 3.5887887557081 31.143242115376 5.3791554285632 0.68306160776316 3.446396766296 13.559876036917 4.2420971956981 8.3489340212205 4.9323920793422 16.305726270558 3.8711906052422 41.006201822759 0 10.608858107464 0.88293444010133 9.9699291537496 6.4277552429869 11.388066367626 0.43556762668073 8.184842470118 52.540681646316 1.8341198429108 24.786435977132 15.577730621273 3.3724095991482 3.9752836503774 0.41993698686585 0 0 0.52832687697681 0 43.455331057956 3.9751197909041 10.542854319064 5.0583243405631 4.5873559716462 15.265865547411 1.9938609831179 0 4.2057644356106 13.205517362893 0 10.106166449206 28.793041402934 0.6590918752344 15.313569962427 0 0.57500315403904 6.5392492021114 20.022074850814 23.300601965861 9.754231480647 4.473513181021 41.320244273078 9.9881159938876 2.3376237491843 1.2552627003785 5.2856070228499 6.3033780809813 17.42414281371 8.2874263468725 3.6664778674758 5.6068335600976 1.0099256040665 7.125605763871 0 3.6727348592869 9.224744870914 6.8745404305701 60.257291657115 4.6329755287504 9.543285101448 10.886292902376 23.26098597426 0.67547142056494 3.2001420764789 9.4733968275077 23.42847372868 0.43823111458349 10.64341870487 4.7733687265913 5.0643729767533 0 3.7459841388045 18.401488881622 25.938125123955 7.8037022066953 12.127874989649 45.034280490079 20.828205137892 1.387941819841 6.0965998459182 6.7567675703697 6.5580391124177 2.7240138192154 0 4.6853973553363 1.6354979596467 1.001328858315 4.2690724871091 0 18.954868207345 11.300162033961 5.3090680025955 58.120989997673 4.7798395135311 14.739475985048 10.374498061857 5.7291647214227 0 9.7386563024168 9.8290847615634 0.54908328819306 42.514864714458 10.454595429103 5.4252741030909 19.272954945649 7.2219999084679 14.62094433128 24.927262138074 4.3162447278477 4.5566741947275 15.462054439794 10.331012987063 31.181742492509 1.2876090866408 14.377666981605 21.500196653648 11.202199645982 5.4785175741677 2.5287332637718 17.632368638957 18.168770811965 3.2863351848563 0.66309589050151 13.652694427093 3.2180955927524 2.7639034805453 0.42112703184614 0 3.8229085065523 20.909648028329 0 30.505150488869 0.65545028355725 16.840381843345 0.68245207890371 13.299175507808 7.2663933636433 0.47225496366001 19.500496276755 0 4.3979879431925 8.7131498564889 19.888409951449 0 5.7159175321463 7.420752520607 17.89747022437 6.5350899231316 0 9.3777990400524 6.5350899231316 24.392810471899 4.4403801751451 35.384902619668 0.66309589050151 9.3568441798274 0.65967817153517 28.638613075966 13.550727385333 27.108970931014 0.64359307019266 21.16379395089 22.858497588425 0.64163576116048 1.7341254901029 0.64468352701151 10.992293971552 0 33.774215599793 0 0 0.65967817153517 0 0 1.3313777927397 2.8585080431058 4.8998242464377 0 0.67966841915747 28.059637469712 0.59864584673857 14.859315071198 0.66421939146641 0 9.7576541494358 44.53090696685 26.165753043003 11.636248177524 10.425340853776 1.3266275438117 0.67906435630211 14.190276216843 6.378052026419 9.8089967376894 18.733791569138 4.7028766884103 9.8089967376893 6.5580391124177 52.626745342207 0.66237995893595 8.0210380024004 9.8338709627736 2.8398842536136 25.865354649619 0 16.81827381318 21.287784776873 10.669980760849 10.773406278331 10.473582401452 17.357105101511 11.030574796025 10.790963686344 11.836743120926 10.473582401452 13.530451078582 22.868305267331 0 9.8227889996562 20.370316747099 0 4.9458574880517 17.760952416573 8.5280403580935 11.259769767643 6.962715953271 13.977584905961 7.5757770303123 0 2.0965483852192 3.5575851992609 6.357509566597 0 5.1190003367202 35.052627587809 29.895068178429 0.66070087785623 24.030399136344 5.5054424007336 5.8853980426135 3.8426872983552 2.0542810129094 11.480139201486 7.5145712015384 7.5899385589851 18.66270657964 0.68072211657916 9.0950362982992 2.1400644743766 5.2986204720895 0 6.5156115621895 7.3257212722798 2.0459010245977 6.7458763587906 9.2198810968472 0.69450059096137 2.0902937442406 6.3184146721976 11.925032715241 38.069418023831 71.958170949931 9.665904226677 8.6766978399542 0 13.361987801883 15.803738441556 16.864744919929 35.496052156149 54.304825109924 7.2613177710726 2.9092953175122 1.329464881314 0 18.034983544189 11.778974524416 2.0221741171323 11.261055434247 0 1.5028509963125 7.6774873193894 79.744751788233 0.67289083810082 22.042068256379 8.2855601775667 0.65264956906446 101.56548139138 10.583733329974 10.126935814944 10.621193604222 22.519482964353 13.67921604734 0.49955382955499 1.9595258684221 1.3385006479183 3.7582232655444 0.5126800946579 32.505589534702 14.602979124258 0 11.568828312336 25.770374469363 2.0037262627516 16.71312775788 15.744604639571 29.753695764885 12.897370181552 40.300412953309 8.5805695500521 2.0879959687558 10.566597938788 20.610812614595 0 0.46979466950851 6.3045387404891 12.065250558526 31.47378405471 0 11.928420661507 5.5534824425667 11.71039024798 29.126796311476 38.057261791243 10.600491878091 28.27486133343 28.468088043329 6.3794040350644 0 5.3706807786565 16.491479867515 10.566597938788 14.822297647138 34.538280476842 22.671515099082 10.078018108736 11.049251649856 2.6811667907835 0 19.512863429318 0 9.2327206326197 19.175693040043 26.298952306776 40.216854746398 11.141441941662 11.460653299338 1.4541313399824 22.111168509788 0 24.05650484339 35.064934508662 9.8151148363122 0 8.7947587807473 8.5116237963157 0.91669926656809 102.89282611524 10.886797876327 11.538881143598 24.66740923858 7.2396945749759 21.303897089624 15.205765123814 0.68526714571377 9.8151148363122 0 18.779353289969 26.240827015616 11.894121798921 12.7860249177 0 19.285337409185 0 0 15.803738441556 1.3269063569069 1.4085777514704 0 8.4624857696864 0.88043758861799 2.0326427329957 0.58377387362285 1.9552469483756 4.3771630242227 13.164169983918 8.2816276929656 3.755862267204 0.17361823751665 9.3547870098681 37.305437869573 6.1477379610561 1.2385669267377 28.96323893389 18.920851103076 12.752585126681 44.838307708695 10.173061928446 9.8738542246681 0.67242682873301 0.84989596213014 29.930821027787 0 10.374406313857 4.9319881984306 7.1353302936113 0.65825694831121 7.7082078870835 16.433800847298 10.246057996331 23.478011721952 6.3901229190324 10.467660935233 1.1662198992951 7.8591810776338 0 0.20442021582562 3.0801007624458 21.518354541322 77.833765840974 11.914698327696 12.275749792172 1.3642673734102 0 6.4607120529948 12.603744032652 5.3480647413753 2.3954311139304 0 0 0.95377963574646 24.739063098037 81.673107413999 0.4727087011862 2.1665758050926 6.3154424628169 12.441837037377 47.254049505219 3.9100749993162 27.189081865855 0 2.5289171941773 16.239851024542 12.182489893286 55.638114888813 1.196669879835 8.7184683649341 0 33.759746802834 2.8544579624224 1.07425198004 11.298995150488 57.353937786296 0 9.2632390149427 3.5374504967818 9.6789456043507 21.352641470602 4.6038826152241 8.5407961206411 0 54.926356031569 11.900292265509 2.9921580125262 9.4518431700341 23.495160779661 0 2.865782659005 0 22.210752152619 0.65560461407768 55.187456325297 0 15.798994428842 4.3244582425709 3.4106646225923 1.6488727860586 62.165658264733 15.754477007841 0.56367847356203 4.1327205103026 9.8738542246681 0 13.903068856942 12.170209573197 9.341671920145 0.93085767833752 18.465569751081 0 25.700585201407 6.5210705409461 8.1321058458901 26.807570486841 0 1.7396177351457 6.7186787391571 0.70301187944402 1.8565235410244 3.5639329656527 0.71157540710735 9.5514401276723 11.198240149683 3.6721809603585 72.178923830798 44.180091872833 16.29193297116 4.8537137749467 25.518307410847 13.982932412712 5.8150602949938 14.331771496702 17.703596030285 10.769139113937 15.915029061887 12.62752640449 14.808290077725 0 24.051457766924 9.5859753018053 5.5932422553753 8.769551790143 3.5140461431066 45.957860651425 54.393638325545 15.027424605903 1.863530304354 1.0137575416094 0.67663416999144 37.262221530679 12.676986384705 1.7893356309786 8.2198117346154 0.46357465355567 8.3766556449144 0.49799757325965 0.65353331973206 1.5648563781355 0.57186529148874 6.5375870600444 41.980515741139 2.5174554898182 15.594637241451 31.195387049096 16.61556701103 8.280669915883 48.430232975587 4.0077273859381 14.775677823391 16.215659404429 9.1732615746303 42.949528343264 42.690695068364 9.9565982994864 58.886948639166 2.6014028402184 9.1252894595181 2.8729343834538 2.6072255598625 0.65560461407774 0 1.6771508447976 0 42.011098142205 7.1671588939576 8.9060575495838 51.286540080619 21.822668846291 11.128739548209 20.056131316769 8.1095432174233 2.6072255598623 2.5454276338116 6.3975655750069 16.273880111987 13.560076919583 4.3651276418906 29.096227840117 15.554603862576 75.315312610541 0 10.177922781235 1.9189152404419 9.1960097287555 0 0.26979332276551 37.87489313956 8.9447132660388 11.914698327696 10.154267898023 9.3543996442878 0 18.579186486417 0 27.246311511156 7.7376142815504 5.7529555533797 4.190809201027 20.229229425752 19.755522876065 36.957314521565 26.620682929746 12.075017382061 0 0 1.1517213086047 0 0 12.118179434642 0 1.9114949123656 6.1658498549356 10.154267898023 20.274226653784 4.1306851731886 1.9694190006193 2.6889472438112 11.944538496633 46.346054572043 20.068263536882 5.8889859760447 2.7704304936237 3.5289348367816 2.6889472438111 5.6026448027375 11.70015823874 0 3.5773321801943 11.110549266518 0.33167886173127 9.7100495718856 4.1794071456276 17.626898953172 0 6.6646330210012 53.033283729553 0.57046262789841 3.3848813737556 8.2542030154341 58.520735046251 28.81705802693 23.348960583289 11.338456690713 0 84.452099180183 15.406688146248 31.967708011358 0.16182257749544 8.1573171228674 2.0805592139226 14.426516187925 19.73954801937 0 11.279249182011 13.589155808424 0.47076665763198 16.580230422559 13.102991770985 8.7410729281813 1.9219773411776 1.4430328241855 6.6389418040146 1.3984182055368 3.4712713569059 17.491841343589 2.6047809997049 12.376515313634 20.949935187001 3.6377724831723 51.055522910731 0 11.859772969459 37.763231663957 5.1972100780457 19.99469199833 28.313021434844 0 10.668215915345 7.1032640265338 20.05539126173 2.6645242727359 1.9728591232016 2.5861559117733 10.197500603901 11.905997688224 16.066573357583 20.402653707574 23.633046731866 0 13.595136379046 0 4.9213509949342 5.594005600738 23.086424761101 0 23.786013390226 38.050231893196 0.67694162229836 2.9589835173868 5.064724232668 0 0 23.423065935531 11.929175001645 22.746463378953 18.163473223691 13.498943745346 9.8594501281119 9.7492934499529 23.385303123492 0.52405476738584 17.176488743825 25.654831068853 0 3.5719867062258 12.892825912111 17.140600807692 14.035107908314 14.238647918526 5.7807087714644 13.283517606418 3.5037655637464 0 0.66595750615186 7.781392624585 13.484162171578 35.111643259257 2.7205439456107 23.710523164764 0 7.3843887833881 0.67694162229842 15.788857617551 15.695537993706 34.870478214068 9.8174065921776 5.5873633163618 1.7674402310193 2.6405279472107 14.636282827468 0 0.67820412856309 0 1.7653756994873 2.9558183688653 21.703999381847 12.882748172321 25.408816856684 0 8.8786628523795 12.759439695686 15.566839003991 13.635078131133 6.5104893260075 0 12.802546989643 5.3743923786788 6.7135495902144 28.30976175861 0 15.921040337692 5.8650944408914 5.3681843642047 0 5.2163220145998 2.1364494101657 7.8504907262363 15.725352178342 26.818304114272 2.0232424455056 34.790320914113 18.277294845709 0.6491948012731 0.65974019128745 1.5918753423011 0 16.711753523363 0 12.892825912111 7.188418306955 7.9855637339353 1.2561611787591 8.0661515642117 1.4534655260066 0 0.97648993827946 0.68393262826097 1.310627727465 9.6382654041065 7.2923512795691 3.5843506045488 19.14061459137 4.047543225998 1.151764811727 2.6023089439956 0 6.8308473379799 4.1760949386067 6.2113830984549 7.0067915784018 2.1913019007416 4.4192135086812 7.9414978922007 15.021870119754 5.4511991123302 43.322862085743 38.758549767673 8.3330107277722 15.463811136098 1.4342108180048 0.65762472380342 39.637241856371 2.7008928893979 0.66630458500598 1.2206666651109 88.191029464801 3.7176692569393 1.310627727465 1.5882430360211 1.3503437192063 0.59297173871096 8.559775022618 0 42.278619977912 6.7561316836965 0.82706454459712 54.067277819296 16.873077195308 11.236390493607 8.0674823249706 0.67080026833621 3.1656788371532 0 31.255471830646 6.4188335527639 34.23159121637 3.0088200786562 0 5.7937369918478 120.29525723246 0.44084067131692 2.8411654192401 1.9400169632809 10.868772581449 27.87537435009 0.35750543059245 2.3638262024812 1.6835415696964 7.5716910490267 0 0 0.65673316499169 0.65703157458379 41.119947157458 2.3894241243843 0 0 33.968621618117 16.635594909482 0 9.7552042406392 19.393435662274 0.66107926907445 7.1865730145611 11.930950709399 14.372351903479 41.923612470155 4.6583752216364 9.7426355031143 10.106239063074 0.60606463763758 54.307047767798 1.3185141914254 10.486750771185 0 0 0 10.904452521792 3.6907005203116 5.3386961369606 10.787764552444 12.621877475579 23.552211363948 0 34.308955911812 1.3589285779613 3.616200267581 6.5454216811322 8.2317145167898 0 0 4.5085222708835 2.3144369132535 11.71039024798 0 1.0378830365858 1.9200594751818 20.126166182987 6.9956939556694 0.54534447153581 11.680119117792 127.8597101144 3.207952145517 1.9728591232016 46.587247775003 6.3649865415608 2.7547598271524 0 8.5343679443467 9.0221219682267 19.394196245687 10.659678656624 0 9.9042066062862 1.3727155776318 5.4350877739682 20.070092931226 0.48785110714739 42.779756302254 10.798903368089 8.651174126384 1.2473519072352 14.640590536886 12.834348948702 4.0141179409658 21.965954476835 1.4837879654049 2.0279342877346 9.9511226894915 0 9.0869282589317 17.270560890857 3.0544386960568 37.843092197418 5.6101838916934 9.6959953950977 0 2.5663314783175 4.4896113138935 7.8749257367929 16.448115426446 75.791371349031 40.52929278988 0 12.239119324892 5.3133311178087 3.8017133360545 18.955366692229 13.265704765844 1.7417634159162 15.078766368572 25.196288904929 0 0.80959299160394 14.172753673982 3.6185725418574 11.592361029965 4.0009223065145 7.729399479391 4.6807731864732 0 0.46777408582119 10.006968694903 1.7057876690932 0.56428373173368 7.7741376278331 0 11.068790555689 0 13.257317431386 27.446021262806 1.7832992678212 19.323048858449 4.6756819502614 1.4580146734422 2.2565240785017 4.5347335928825 8.8365313845444 3.2375198732048 0 23.406166448177 4.8261334504992 5.0401640343091 17.442893722266 0.26681940478761 1.9114949123658 18.59885900882 39.903021436442 13.941352301452 0 0 9.7921562382396 3.673961847399 13.822835705524 9.5819805571622 8.6793770292759 13.378053943315 0 4.2425376732364 12.683282325403 7.2056346425546 2.0361544083067 1.8621805296612 23.435750148011 0 0.52013980348069 0 24.819131810014 14.862176278769 0 9.108220830972 8.9970439340977 12.606666359449 9.3104953889806 1.6417326974876 1.9147926571786 0 16.388173949411 2.846485302677 0 1.1806597798272 24.81863876658 6.8790617536313 0 2.0283996553822 22.600946711247 0 30.347950775515 6.1730891006876 22.84544457943 0 13.89114999559 1.6459736193334 5.9770212100866 0.61918374645051 0 0 66.573068858855 5.8232695253952 0.66886737100864 0.6491948012731 6.0577697058147 1.7843207030801 3.1063498155463 1.6823845894595 8.3056541789143 1.5627273088917 10.119426377934 26.87937366827 12.134671432277 5.0981568304844 7.5240672226907 3.1717218784662 7.2813007378834 10.622569592457 3.4641586417468 8.7906920080844 3.812366866642 7.0076455950016 33.180435753752 3.0600129247334 0 15.381867014908 27.040614278685 0 47.754186392851 5.1836855460181 1.7952221793177 0 5.5476584127687 4.6441